Program Version,EnergyPlus, Version 9.6.0-f420c06a69, YMD=2022.02.10 16:57
1,5,Environment Title[],Latitude[deg],Longitude[deg],Time Zone[],Elevation[m]
2,8,Day of Simulation[],Month[],Day of Month[],DST Indicator[1=yes 0=no],Hour[],StartMinute[],EndMinute[],DayType
3,5,Cumulative Day of Simulation[],Month[],Day of Month[],DST Indicator[1=yes 0=no],DayType  ! When Daily Report Variables Requested
4,2,Cumulative Days of Simulation[],Month[]  ! When Monthly Report Variables Requested
5,1,Cumulative Days of Simulation[] ! When Run Period Report Variables Requested
6,1,Calendar Year of Simulation[] ! When Annual Report Variables Requested
502,1,CORE_ZN,Zone Mean Air Temperature [C] !TimeStep
503,1,PERIMETER_ZN_1,Zone Mean Air Temperature [C] !TimeStep
504,1,PERIMETER_ZN_2,Zone Mean Air Temperature [C] !TimeStep
505,1,PERIMETER_ZN_3,Zone Mean Air Temperature [C] !TimeStep
506,1,PERIMETER_ZN_4,Zone Mean Air Temperature [C] !TimeStep
507,1,ATTIC,Zone Mean Air Temperature [C] !TimeStep
1215,1,HTGSETP_SCH,Schedule Value [] !TimeStep
1216,1,CLGSETP_SCH,Schedule Value [] !TimeStep
2896,1,Averaged Building Temperature,PythonPlugin:OutputVariable [C] !TimeStep
44,9,Electricity:Facility [J] !Monthly [Value,Min,Day,Hour,Minute,Max,Day,Hour,Minute]
1358,9,NaturalGas:Facility [J] !Monthly [Value,Min,Day,Hour,Minute,Max,Day,Hour,Minute]
1729,9,CO2:Facility [kg] !Monthly [Value,Min,Day,Hour,Minute,Max,Day,Hour,Minute]
1754,9,CO:Facility [kg] !Monthly [Value,Min,Day,Hour,Minute,Max,Day,Hour,Minute]
1779,9,CH4:Facility [kg] !Monthly [Value,Min,Day,Hour,Minute,Max,Day,Hour,Minute]
1804,9,NOx:Facility [kg] !Monthly [Value,Min,Day,Hour,Minute,Max,Day,Hour,Minute]
1829,9,N2O:Facility [kg] !Monthly [Value,Min,Day,Hour,Minute,Max,Day,Hour,Minute]
1854,9,SO2:Facility [kg] !Monthly [Value,Min,Day,Hour,Minute,Max,Day,Hour,Minute]
1879,9,PM:Facility [kg] !Monthly [Value,Min,Day,Hour,Minute,Max,Day,Hour,Minute]
1904,9,PM10:Facility [kg] !Monthly [Value,Min,Day,Hour,Minute,Max,Day,Hour,Minute]
1929,9,PM2.5:Facility [kg] !Monthly [Value,Min,Day,Hour,Minute,Max,Day,Hour,Minute]
1954,9,NH3:Facility [kg] !Monthly [Value,Min,Day,Hour,Minute,Max,Day,Hour,Minute]
1979,9,NMVOC:Facility [kg] !Monthly [Value,Min,Day,Hour,Minute,Max,Day,Hour,Minute]
2004,9,Hg:Facility [kg] !Monthly [Value,Min,Day,Hour,Minute,Max,Day,Hour,Minute]
2029,9,Pb:Facility [kg] !Monthly [Value,Min,Day,Hour,Minute,Max,Day,Hour,Minute]
2054,9,WaterEnvironmentalFactors:Facility [L] !Monthly [Value,Min,Day,Hour,Minute,Max,Day,Hour,Minute]
2079,9,Nuclear High:Facility [kg] !Monthly [Value,Min,Day,Hour,Minute,Max,Day,Hour,Minute]
2104,9,Nuclear Low:Facility [m3] !Monthly [Value,Min,Day,Hour,Minute,Max,Day,Hour,Minute]
2818,9,Carbon Equivalent:Facility [kg] !Monthly [Value,Min,Day,Hour,Minute,Max,Day,Hour,Minute]
End of Data Dictionary
1,CHICAGO ANN HTG 99.6% CONDNS DB,  41.98, -87.92,  -6.00, 201.00
2,1, 1,21, 0, 1, 0.00,10.00,WinterDesignDay
502,16.222465049085805
503,11.305997415067473
504,11.267724585358636
505,11.449576105693144
506,11.370261621904191
507,0.35251311790305523
1215,21.0
1216,30.0
2896,12.780736936155472
2,1, 1,21, 0, 1,10.00,20.00,WinterDesignDay
502,16.588323653031118
503,11.950576341091908
504,11.935240031301085
505,12.079339634778187
506,12.04774583082426
507,0.34163559475561645
1215,21.0
1216,30.0
2896,13.347775726476579
2,1, 1,21, 0, 1,20.00,30.00,WinterDesignDay
502,16.616552136139784
503,12.127218608723696
504,12.114316230773719
505,12.24759456446608
506,12.229989350987788
507,0.3319248948005685
1215,21.0
1216,30.0
2896,13.480161571875511
2,1, 1,21, 0, 1,30.00,40.00,WinterDesignDay
502,15.391709625942086
503,10.062818528294681
504,9.954051463039974
505,10.222369047396544
506,10.035514232351852
507,0.32582124957931113
1215,21.0
1216,30.0
2896,11.640515392778227
2,1, 1,21, 0, 1,40.00,50.00,WinterDesignDay
502,16.19589903400283
503,11.258775984611958
504,11.217146789691474
505,11.40236623928595
506,11.318028577470027
507,0.318772845070861
1215,21.0
1216,30.0
2896,12.738463850098073
2,1, 1,21, 0, 1,50.00,60.00,WinterDesignDay
502,16.56246102808715
503,11.90302940634745
504,11.88425639317551
505,12.031795376991377
506,11.995623823037818
507,0.30779500774339824
1215,21.0
1216,30.0
2896,13.305523303235459
2,1, 1,21, 0, 2, 0.00,10.00,WinterDesignDay
502,16.591037338102787
503,12.078520008116001
504,12.062255433546857
505,12.198874607148356
506,12.177057348152811
507,0.2980166679961902
1215,21.0
1216,30.0
2896,13.437245967004317
2,1, 1,21, 0, 2,10.00,20.00,WinterDesignDay
502,15.364608380531191
503,10.01489555289102
504,9.903167797152273
505,10.174406140021983
506,9.982169879986106
507,0.29189830846129816
1215,21.0
1216,30.0
2896,11.597576171319593
2,1, 1,21, 0, 2,20.00,30.00,WinterDesignDay
502,16.1696789578236
503,11.214007437876731
504,11.169254799767712
505,11.35761540852724
506,11.268375369225467
507,0.2848372274771098
1215,21.0
1216,30.0
2896,12.698075520587748
2,1, 1,21, 0, 2,30.00,40.00,WinterDesignDay
502,16.536913052507643
503,11.857841199862097
504,11.835864141189633
505,11.986611891229217
506,11.946025802245007
507,0.2738505409232699
1215,21.0
1216,30.0
2896,13.265083983962166
2,1, 1,21, 0, 2,40.00,50.00,WinterDesignDay
502,16.565848328992914
503,12.03211764407643
504,12.01272330950305
505,12.152445830615273
506,12.12661753417583
507,0.26407905783017366
1215,21.0
1216,30.0
2896,13.396104968592043
2,1, 1,21, 0, 2,50.00,60.00,WinterDesignDay
502,15.337638278673277
503,9.969169094644696
504,9.854667919750261
505,10.128633758922735
506,9.93107549476142
507,0.2579836611329352
1215,21.0
1216,30.0
2896,11.556259128116842
2,1, 1,21, 0, 3, 0.00,10.00,WinterDesignDay
502,16.14360873961898
503,11.171386682672244
504,11.123699140031565
505,11.315017512314965
506,11.22094589329424
507,0.25095251003446445
1215,21.0
1216,30.0
2896,12.659285988082745
2,1, 1,21, 0, 3,10.00,20.00,WinterDesignDay
502,16.511538618266933
503,11.814750264663022
504,11.789763252216044
505,11.943527218991942
506,11.898649372535163
507,0.24002020449747344
1215,21.0
1216,30.0
2896,13.226220968512699
2,1, 1,21, 0, 3,20.00,30.00,WinterDesignDay
502,16.540879988852414
503,11.987784701547895
504,11.965459018942903
505,12.108081290144503
506,12.078408980908625
507,0.23030725346075645
1215,21.0
1216,30.0
2896,13.35653839172158
2,1, 1,21, 0, 3,30.00,40.00,WinterDesignDay
502,15.310623120912519
503,9.925422943730002
504,9.808311688998575
505,10.084835574421733
506,9.881890875193939
507,0.22426109479631706
1215,21.0
1216,30.0
2896,11.516340265113913
2,1, 1,21, 0, 3,40.00,50.00,WinterDesignDay
502,16.117537388778608
503,11.130704323169487
504,11.08024468352249
505,11.274363634143548
506,11.175438643537767
507,0.21728963786153677
1215,21.0
1216,30.0
2896,12.62188754786521
2,1, 1,21, 0, 3,50.00,60.00,WinterDesignDay
502,16.48623818467947
503,11.773570564669955
504,11.745744059775589
505,11.902355970029639
506,11.853249282711015
507,0.20645597591122855
1215,21.0
1216,30.0
2896,13.188762780789345
2,1, 1,21, 0, 4, 0.00,10.00,WinterDesignDay
502,16.51606763443109
503,11.945353427813522
504,11.920273251647393
505,12.065613859608558
506,12.032224818301362
507,0.1968378192629378
1215,21.0
1216,30.0
2896,13.318400811004896
2,1, 1,21, 0, 4,10.00,20.00,WinterDesignDay
502,15.283316264893147
503,9.883497663653644
504,9.763925653808053
505,10.042852739241539
506,9.834095225133792
507,0.19085937909026202
1215,21.0
1216,30.0
2896,11.477585321813367
2,1, 1,21, 0, 4,20.00,30.00,WinterDesignDay
502,16.091260554880748
503,11.091804303716076
504,11.038719216571083
505,11.235499110102115
506,11.131448217796105
507,0.183968571873606
1215,21.0
1216,30.0
2896,12.585675356510071
2,1, 1,21, 0, 4,30.00,40.00,WinterDesignDay
502,16.46088875514756
503,11.734158451615635
504,11.703647611161262
505,11.862955840273226
506,11.80953993796006
507,0.17326476030999435
1215,21.0
1216,30.0
2896,13.152551413314765
2,1, 1,21, 0, 4,40.00,50.00,WinterDesignDay
502,16.49134695344753
503,11.904689447469194
504,11.877017630427058
505,12.024910219561894
506,11.987853272048591
507,0.16376697071536153
1215,21.0
1216,30.0
2896,13.281566564591996
2,1, 1,21, 0, 4,50.00,60.00,WinterDesignDay
502,15.254968119686398
503,9.84326468991723
504,9.721372822373942
505,10.002557668441806
506,9.787422898585232
507,0.15786921820999653
1215,21.0
1216,30.0
2896,11.439664968127454
2,1, 1,21, 0, 5, 0.00,10.00,WinterDesignDay
502,16.06416257069085
503,11.054559473030826
504,10.998985258401838
505,11.198298781213984
506,11.088736439912102
507,0.15107375684883467
1215,21.0
1216,30.0
2896,12.550363698753976
2,1, 1,21, 0, 5,10.00,20.00,WinterDesignDay
502,16.435132861786926
503,11.6963932943094
504,11.663343166100693
505,11.825208019612063
506,11.767326787529246
507,0.14052166442111644
1215,21.0
1216,30.0
2896,13.117386234312265
2,1, 1,21, 0, 5,20.00,30.00,WinterDesignDay
502,16.466556841351284
503,11.865676437305638
504,11.835566458292384
505,11.985855385325024
506,11.945128524903653
507,0.13116205018051166
1215,21.0
1216,30.0
2896,13.245898764556655
2,1, 1,21, 0, 5,30.00,40.00,WinterDesignDay
502,15.235691593547967
503,9.804607981282311
504,9.680531747340334
505,9.963835576460312
506,9.74843109647314
507,0.12535377636311387
1215,21.0
1216,30.0
2896,11.406336188760221
2,1, 1,21, 0, 5,40.00,50.00,WinterDesignDay
502,16.04479167919334
503,11.018865092847301
504,10.960927366078712
505,11.16266025435948
506,11.051606976746783
507,0.11866357399155668
1215,21.0
1216,30.0
2896,12.518960799242617
2,1, 1,21, 0, 5,50.00,60.00,WinterDesignDay
502,16.41395938537965
503,11.660200749192937
504,11.624733395009804
505,11.78903993759147
506,11.728845034961937
507,0.10827821843359153
1215,21.0
1216,30.0
2896,13.084976765118528
2,1, 1,21, 0, 6, 0.00,10.00,WinterDesignDay
502,16.443802444449513
503,11.828274440382394
504,11.795842884602639
505,11.9484104619151
506,11.905064785495217
507,0.09907031851195322
1215,21.0
1216,30.0
2896,13.212119672140595
2,1, 1,21, 0, 6,10.00,20.00,WinterDesignDay
502,15.218582501175252
503,9.767575312502487
504,9.641415164885416
505,9.926734426106153
506,9.710250374504097
507,0.09336087340860803
1215,21.0
1216,30.0
2896,11.374696047178753
2,1, 1,21, 0, 6,20.00,30.00,WinterDesignDay
502,16.028273637024732
503,10.98477838584885
504,10.924555288812297
505,11.128644618752803
506,11.015709822672637
507,0.08678750019029217
1215,21.0
1216,30.0
2896,12.489494382138112
2,1, 1,21, 0, 6,30.00,40.00,WinterDesignDay
502,16.39571249824341
503,11.625598080502886
504,11.587798688522502
505,11.754472350367083
506,11.691906094016062
507,0.07658718953088518
1215,21.0
1216,30.0
2896,13.054555913199128
2,1, 1,21, 0, 6,40.00,50.00,WinterDesignDay
502,16.42375400739197
503,11.792449980473673
504,11.757795755031427
505,11.912543946434056
506,11.866728900372514
507,0.06754708738566194
1215,21.0
1216,30.0
2896,13.18028150468963
2,1, 1,21, 0, 6,50.00,60.00,WinterDesignDay
502,15.199456189418623
503,9.732107218281547
504,9.60395406988625
505,9.891196851729836
506,9.673438822190974
507,0.06194551724345217
1215,21.0
1216,30.0
2896,11.34355781805909
2,1, 1,21, 0, 7, 0.00,10.00,WinterDesignDay
502,16.01826648150808
503,11.711041202239034
504,11.67068645296408
505,11.863380232884957
506,11.761525185817952
507,0.05570638486449771
1215,21.0
1216,30.0
2896,13.007261753133054
2,1, 1,21, 0, 7,10.00,20.00,WinterDesignDay
502,16.093943820149907
503,12.32208730765424
504,12.286677822955822
505,12.459063350466788
506,12.38422936131549
507,0.04856530535747785
1215,21.0
1216,30.0
2896,13.460338066981546
2,1, 1,21, 0, 7,20.00,30.00,WinterDesignDay
502,16.155539267474435
503,12.659469129936129
504,12.64343043066555
505,12.79255525442608
506,12.745999116332495
507,0.042165983167574694
1215,21.0
1216,30.0
2896,13.721872756267821
2,1, 1,21, 0, 7,30.00,40.00,WinterDesignDay
502,16.30682959894935
503,13.190754375311453
504,13.181967881272161
505,13.319876315088202
506,13.289783071863539
507,0.030775075230942757
1215,21.0
1216,30.0
2896,14.143623142834508
2,1, 1,21, 0, 7,40.00,50.00,WinterDesignDay
502,16.38773120872715
503,13.436145383738836
504,13.428579843815763
505,13.563265414518176
506,13.539274425952463
507,0.021828841088492933
1215,21.0
1216,30.0
2896,14.341111000535868
2,1, 1,21, 0, 7,50.00,60.00,WinterDesignDay
502,16.413294278184814
503,13.505570414560529
504,13.503127864398147
505,13.63172889070452
506,13.61542501654256
507,0.015712218221884344
1215,21.0
1216,30.0
2896,14.39904065164659
2,1, 1,21, 0, 8, 0.00,10.00,WinterDesignDay
502,16.42849321487342
503,13.549889593586288
504,13.555895098471249
505,13.675617006384405
506,13.66937579981763
507,0.011177110627266434
1215,21.0
1216,30.0
2896,14.437118694289477
2,1, 1,21, 0, 8,10.00,20.00,WinterDesignDay
502,16.450753998822755
503,13.606882337267272
504,13.62079353250915
505,13.732584236095603
506,13.735194126660353
507,0.007645413743638101
1215,21.0
1216,30.0
2896,14.486139774241002
2,1, 1,21, 0, 8,20.00,30.00,WinterDesignDay
502,16.47576902819219
503,13.664977772713241
504,13.68517294211702
505,13.79079955171197
506,13.800327592476805
507,0.005062070651704768
1215,21.0
1216,30.0
2896,14.536330488946104
2,1, 1,21, 0, 8,30.00,40.00,WinterDesignDay
502,16.498415090034
503,13.71542018361575
504,13.74095629087495
505,13.841321696563396
506,13.856784932445537
507,0.003603088649533498
1215,21.0
1216,30.0
2896,14.580147477077027
2,1, 1,21, 0, 8,40.00,50.00,WinterDesignDay
502,16.517881722929456
503,13.758592164144147
504,13.789050472698992
505,13.88452140253691
506,13.905493589604026
507,0.0032008476546777965
1215,21.0
1216,30.0
2896,14.617762161682103
2,1, 1,21, 0, 8,50.00,60.00,WinterDesignDay
502,16.535218584513352
503,13.79686216285168
504,13.83207420401313
505,13.922845352953207
506,13.949066676104353
507,0.0038175324393458585
1215,21.0
1216,30.0
2896,14.65123940144633
2,1, 1,21, 0, 9, 0.00,10.00,WinterDesignDay
502,16.551221370869605
503,13.831874555818944
504,13.871227614171232
505,13.957921136921042
506,13.988707390031168
507,0.005272996314747182
1215,21.0
1216,30.0
2896,14.681854792085895
2,1, 1,21, 0, 9,10.00,20.00,WinterDesignDay
502,16.567187164811685
503,13.864243454374233
504,13.907237959883961
505,13.990342853140968
506,14.02515618159634
507,0.007536031153890967
1215,21.0
1216,30.0
2896,14.710449495539546
2,1, 1,21, 0, 9,20.00,30.00,WinterDesignDay
502,16.58201626089062
503,13.894259645378458
504,13.940567494469612
505,14.0203997030367
506,14.058885822928465
507,0.010469410877382365
1215,21.0
1216,30.0
2896,14.73695337258027
2,1, 1,21, 0, 9,30.00,40.00,WinterDesignDay
502,16.59538909042943
503,13.922227949307546
504,13.971584613267074
505,14.0484015442604
506,14.090271450242996
507,0.014062759032369306
1215,21.0
1216,30.0
2896,14.76150718041004
2,1, 1,21, 0, 9,40.00,50.00,WinterDesignDay
502,16.60758931923281
503,13.948462001999738
504,14.00061967918663
505,14.074665487185511
506,14.119648251391316
507,0.018197690970154952
1215,21.0
1216,30.0
2896,14.78442159126115
2,1, 1,21, 0, 9,50.00,60.00,WinterDesignDay
502,16.618963407416988
503,13.973229990925153
504,14.02796066898878
505,14.099460860744555
506,14.14730821080561
507,0.022866555045935894
1215,21.0
1216,30.0
2896,14.80599370137994
2,1, 1,21, 0,10, 0.00,10.00,WinterDesignDay
502,16.62970203297777
503,13.996745842868473
504,14.053848861308385
505,14.123001829558238
506,14.17349606098887
507,0.02796793282585518
1215,21.0
1216,30.0
2896,14.826438340664936
2,1, 1,21, 0,10,10.00,20.00,WinterDesignDay
502,16.641468848239903
503,14.01918312696724
504,14.078484762589921
505,14.145462155299445
506,14.198415223338602
507,0.033498614921812025
1215,21.0
1216,30.0
2896,14.846372866736166
2,1, 1,21, 0,10,20.00,30.00,WinterDesignDay
502,16.652539831048536
503,14.040687241210534
504,14.102036618673477
505,14.166987526858975
506,14.222236362128339
507,0.03937397652797207
1215,21.0
1216,30.0
2896,14.865401745401746
2,1, 1,21, 0,10,30.00,40.00,WinterDesignDay
502,16.66238631596553
503,14.061381927742163
504,14.124647112640739
505,14.187701997309489
506,14.24510416583581
507,0.04559374716095185
1215,21.0
1216,30.0
2896,14.883463026612091
2,1, 1,21, 0,10,40.00,50.00,WinterDesignDay
502,16.67142693546438
503,14.081371055986995
504,14.14643645557444
505,14.207709707202051
506,14.267140513310443
507,0.05208751166276802
1215,21.0
1216,30.0
2896,14.900757319482684
2,1, 1,21, 0,10,50.00,60.00,WinterDesignDay
502,16.680081229640354
503,14.100740162006241
504,14.167504763762118
505,14.227096421115112
506,14.288446909366101
507,0.05885692043211958
1215,21.0
1216,30.0
2896,14.917472023119618
2,1, 1,21, 0,11, 0.00,10.00,WinterDesignDay
502,16.68843770121822
503,14.119439170983561
504,14.187803545356315
505,14.245809797833394
506,14.308975720537818
507,0.0657547387232026
1215,21.0
1216,30.0
2896,14.933597662469477
2,1, 1,21, 0,11,10.00,20.00,WinterDesignDay
502,16.696016839640897
503,14.137600188487147
504,14.207482714128352
505,14.263983737682763
506,14.328877606170002
507,0.0728298826203689
1215,21.0
1216,30.0
2896,14.94909245907384
2,1, 1,21, 0,11,20.00,30.00,WinterDesignDay
502,16.703464931111483
503,14.155358552762713
504,14.22669386538676
505,14.281755574313866
506,14.348305116733531
507,0.08010289384209641
1215,21.0
1216,30.0
2896,14.964246196772123
2,1, 1,21, 0,11,30.00,40.00,WinterDesignDay
502,16.711011597151813
503,14.172761198064949
504,14.245492247890539
505,14.299172423473085
506,14.367314513943764
507,0.08758203431765717
1215,21.0
1216,30.0
2896,14.979161660320512
2,1, 1,21, 0,11,40.00,50.00,WinterDesignDay
502,16.718558808968464
503,14.189824483772773
504,14.263900252225358
505,14.316250214510323
506,14.38592897460506
507,0.09521176554548838
1215,21.0
1216,30.0
2896,14.993823314595137
2,1, 1,21, 0,11,50.00,60.00,WinterDesignDay
502,16.726002751070077
503,14.206568819934189
504,14.281943965407983
505,14.3330092074911
506,14.404175087033256
507,0.10298139467307685
1215,21.0
1216,30.0
2896,15.008216726305724
2,1, 1,21, 0,12, 0.00,10.00,WinterDesignDay
502,16.733324659741413
503,14.223019046296276
504,14.299653160520219
505,14.34947436512874
506,14.422082964797958
507,0.110856167348012
1215,21.0
1216,30.0
2896,15.022355340100862
2,1, 1,21, 0,12,10.00,20.00,WinterDesignDay
502,16.741592091649228
503,14.239198060648233
504,14.317054801354777
505,14.36566873713357
506,14.439679862499439
507,0.11883887700292206
1215,21.0
1216,30.0
2896,15.03656905319817
2,1, 1,21, 0,12,20.00,30.00,WinterDesignDay
502,16.749641358254436
503,14.255125073858062
504,14.334171489103557
505,14.381611623563527
506,14.456988651192306
507,0.1269040684281957
1215,21.0
1216,30.0
2896,15.050531693536616
2,1, 1,21, 0,12,30.00,40.00,WinterDesignDay
502,16.757094947359864
503,14.270817019281061
504,14.351022921287518
505,14.397320011250777
506,14.47402926811787
507,0.13505343715353796
1215,21.0
1216,30.0
2896,15.06414547943118
2,1, 1,21, 0,12,40.00,50.00,WinterDesignDay
502,16.764199079096322
503,14.286288543825135
504,14.367626145868169
505,14.412808590571172
506,14.49081896318672
507,0.14326493847976596
1215,21.0
1216,30.0
2896,15.077493526626343
2,1, 1,21, 0,12,50.00,60.00,WinterDesignDay
502,16.77120235895851
503,14.301551453360824
504,14.383995267385233
505,14.428089204734984
506,14.507372008949682
507,0.15154013550832582
1215,21.0
1216,30.0
2896,15.090657607233808
2,1, 1,21, 0,13, 0.00,10.00,WinterDesignDay
502,16.778181168949626
503,14.316615287808697
504,14.400141994156526
505,14.443171426263243
506,14.523700255977328
507,0.15986106632710584
1215,21.0
1216,30.0
2896,15.103667428252157
2,1, 1,21, 0,13,10.00,20.00,WinterDesignDay
502,16.784343930267312
503,14.331488380034923
504,14.416076543320195
505,14.458063618539617
506,14.539814044082302
507,0.1682293073227791
1215,21.0
1216,30.0
2896,15.116297642344744
2,1, 1,21, 0,13,20.00,30.00,WinterDesignDay
502,16.790565125328477
503,14.346178222347865
504,14.431807994187485
505,14.472773301177067
506,14.555722558646718
507,0.17662991570562697
1215,21.0
1216,30.0
2896,15.128810018366382
2,1, 1,21, 0,13,30.00,40.00,WinterDesignDay
502,16.797137593553064
503,14.360691068646181
504,14.447344047358763
505,14.487306747771061
506,14.571433592069608
507,0.18506413115682274
1215,21.0
1216,30.0
2896,15.14129511455072
2,1, 1,21, 0,13,40.00,50.00,WinterDesignDay
502,16.803889706280426
503,14.375032587658398
504,14.4626916033301
505,14.501669642264115
506,14.586954126637796
507,0.19351945385293523
1215,21.0
1216,30.0
2896,15.153707028738204
2,1, 1,21, 0,13,50.00,60.00,WinterDesignDay
502,16.81064607061713
503,14.389208632991854
504,14.47785741106676
505,14.515867851907418
506,14.602290986014326
507,0.2019967966149746
1215,21.0
1216,30.0
2896,15.16599879755436
2,1, 1,21, 0,14, 0.00,10.00,WinterDesignDay
502,16.81735753866187
503,14.403225055849669
504,14.492847960621647
505,14.52990723738753
506,14.617450728650903
507,0.21048576633793648
1215,21.0
1216,30.0
2896,15.178160348819345
2,1, 1,21, 0,14,10.00,20.00,WinterDesignDay
502,16.823777491595596
503,14.417087142765322
504,14.50766908889755
505,14.54379308778246
506,14.632439253816417
507,0.218987081532781
1215,21.0
1216,30.0
2896,15.190123369552596
2,1, 1,21, 0,14,20.00,30.00,WinterDesignDay
502,16.830216254473214
503,14.43079934518146
504,14.522325809432399
505,14.55752985115956
506,14.647261631427574
507,0.2274922576774926
1215,21.0
1216,30.0
2896,15.201982020004763
2,1, 1,21, 0,14,30.00,40.00,WinterDesignDay
502,16.836773103505475
503,14.444365293037354
504,14.536822351074138
505,14.571121150873047
506,14.661922141034081
507,0.23600185954994696
1215,21.0
1216,30.0
2896,15.213768096490558
2,1, 1,21, 0,14,40.00,50.00,WinterDesignDay
502,16.843386085268808
503,14.45778825553844
504,14.551162535293809
505,14.584570249795643
506,14.67642465049207
507,0.24450894586722297
1215,21.0
1216,30.0
2896,15.225465922365633
2,1, 1,21, 0,14,50.00,60.00,WinterDesignDay
502,16.849993705586677
503,14.471071509869393
504,14.5653500747134
505,14.597880419768629
506,14.690772915824112
507,0.2530138240419548
1215,21.0
1216,30.0
2896,15.23705993015067
2,1, 1,21, 0,15, 0.00,10.00,WinterDesignDay
502,16.85657892064456
503,14.484218288493814
504,14.579388544011568
505,14.61105488689364
506,14.704970552831186
507,0.26151080406286603
1215,21.0
1216,30.0
2896,15.248547509906729
2,1, 1,21, 0,15,10.00,20.00,WinterDesignDay
502,16.862107404314976
503,14.497231581463776
504,14.593281242097362
505,14.624096632252751
506,14.719020899559911
507,0.2699999724489925
1215,21.0
1216,30.0
2896,15.259628029237756
2,1, 1,21, 0,15,20.00,30.00,WinterDesignDay
502,16.86776410935104
503,14.510113812166496
504,14.60703095289755
505,14.637008067205882
506,14.732926775979852
507,0.2784767486316939
1215,21.0
1216,30.0
2896,15.27065023121323
2,1, 1,21, 0,15,30.00,40.00,WinterDesignDay
502,16.873934552995838
503,14.522866323822338
504,14.62063955681324
505,14.649790519009432
506,14.746690094891823
507,0.28694101693797003
1215,21.0
1216,30.0
2896,15.281728080257826
2,1, 1,21, 0,15,40.00,50.00,WinterDesignDay
502,16.88037827591481
503,14.535490440720828
504,14.634108869407822
505,14.662445298766714
506,14.760312703133648
507,0.2953890537731091
1215,21.0
1216,30.0
2896,15.29279224145517
2,1, 1,21, 0,15,50.00,60.00,WinterDesignDay
502,16.886853868778726
503,14.547988515984963
504,14.647441453089929
505,14.674974751973313
506,14.773797195329157
507,0.3038204163654553
1215,21.0
1216,30.0
2896,15.303773756461544
2,1, 1,21, 0,16, 0.00,10.00,WinterDesignDay
502,16.893292103603553
503,14.560363574415934
504,14.660640336387598
505,14.687381895662085
506,14.787146633342187
507,0.31223208887777165
1215,21.0
1216,30.0
2896,15.314654499448872
2,1, 1,21, 0,16,10.00,20.00,WinterDesignDay
502,16.899189781248896
503,14.57261844384964
504,14.67370835301852
505,14.69966954452568
506,14.800363884583174
507,0.32062347843900935
1215,21.0
1216,30.0
2896,15.325289146006773
2,1, 1,21, 0,16,20.00,30.00,WinterDesignDay
502,16.90515363366134
503,14.584755266889252
504,14.68664777943934
505,14.711839823231571
506,14.813451257913107
507,0.32899237960616506
1215,21.0
1216,30.0
2896,15.335856886818114
2,1, 1,21, 0,16,30.00,40.00,WinterDesignDay
502,16.911376893587953
503,14.596775362308689
504,14.69946023379692
505,14.723894030797252
506,14.826410401568776
507,0.3373381331365924
1215,21.0
1216,30.0
2896,15.346415307917862
2,1, 1,21, 0,16,40.00,50.00,WinterDesignDay
502,16.917735004593723
503,14.608679950547039
504,14.71214724035572
505,14.735833371345533
506,14.83924286861526
507,0.3456591392453177
1215,21.0
1216,30.0
2896,15.35692888478409
2,1, 1,21, 0,16,50.00,60.00,WinterDesignDay
502,16.924104542441736
503,14.620470764068134
504,14.72471069640281
505,14.74765956554716
506,14.851950585231547
507,0.35395452408633643
1215,21.0
1216,30.0
2896,15.367362750908196
2,1, 1,21, 0,17, 0.00,10.00,WinterDesignDay
502,16.930450125580823
503,14.632149872300365
504,14.73715273208887
505,14.759374671687878
506,14.864535711133644
507,0.3622231423613942
1215,21.0
1216,30.0
2896,15.377708028175498
2,1, 1,21, 0,17,10.00,20.00,WinterDesignDay
502,16.937038237946176
503,14.643719235091815
504,14.749475370132993
505,14.770980635895484
506,14.877000299089964
507,0.37046398486864224
1215,21.0
1216,30.0
2896,15.388044141647615
2,1, 1,21, 0,17,20.00,30.00,WinterDesignDay
502,16.943582773384442
503,14.655180585674781
504,14.76168044461746
505,14.782479175687387
506,14.889346213421245
507,0.3786764030313375
1215,21.0
1216,30.0
2896,15.39828857757251
2,1, 1,21, 0,17,30.00,40.00,WinterDesignDay
502,16.949988148923172
503,14.66653565347708
504,14.773769777269099
505,14.793872005393485
506,14.901575305958133
507,0.3868593126264528
1215,21.0
1216,30.0
2896,15.408414599029049
2,1, 1,21, 0,17,40.00,50.00,WinterDesignDay
502,16.956311417137993
503,14.677786039917535
504,14.785745077436976
505,14.805160711697548
506,14.913689315561536
507,0.39501248676667594
1215,21.0
1216,30.0
2896,15.418440071542193
2,1, 1,21, 0,17,50.00,60.00,WinterDesignDay
502,16.96261060756854
503,14.688933022401924
504,14.797607789947042
505,14.81634655681446
506,14.925689715821157
507,0.4031347522861482
1215,21.0
1216,30.0
2896,15.42838293299127
2,1, 1,21, 0,18, 0.00,10.00,WinterDesignDay
502,16.96890208554757
503,14.699977652820799
504,14.809359173838242
505,14.82743057775129
506,14.93757779393951
507,0.41122621837172996
1215,21.0
1216,30.0
2896,15.438248773710564
2,1, 1,21, 0,18,10.00,20.00,WinterDesignDay
502,16.973371886752208
503,14.710920972742548
504,14.821000468596866
505,14.838413802442686
506,14.949354817277888
507,0.4192855844718189
1215,21.0
1216,30.0
2896,15.447507287964667
2,1, 1,21, 0,18,20.00,30.00,WinterDesignDay
502,16.97807326800326
503,14.721763657069904
504,14.832532610702748
505,14.849296891798582
506,14.961021748199784
507,0.4273132037965802
1215,21.0
1216,30.0
2896,15.456760177757138
2,1, 1,21, 0,18,30.00,40.00,WinterDesignDay
502,16.98367398827277
503,14.732504979570166
504,14.843955429901067
505,14.860079100708687
506,14.972578439786
507,0.43530761620825276
1215,21.0
1216,30.0
2896,15.466202582210602
2,1, 1,21, 0,18,40.00,50.00,WinterDesignDay
502,16.989756100599152
503,14.743144475593061
504,14.855268955794651
505,14.870759950382327
506,14.984024945121378
507,0.4432692786718984
1215,21.0
1216,30.0
2896,15.475711935698477
2,1, 1,21, 0,18,50.00,60.00,WinterDesignDay
502,16.995900976809878
503,14.753683674568753
504,14.866474752551348
505,14.881340965658584
506,14.995362855059058
507,0.4511964145645722
1215,21.0
1216,30.0
2896,15.485166764938704
2,1, 1,21, 0,19, 0.00,10.00,WinterDesignDay
502,17.000459723929644
503,13.946660261400043
504,14.028810048320654
505,14.067963676452182
506,14.154657083682936
507,0.45657584384173233
1215,21.0
1216,30.0
2896,14.90588035196913
2,1, 1,21, 0,19,10.00,20.00,WinterDesignDay
502,17.00434221553833
503,13.650920533144987
504,13.73429241132576
505,13.771434556085694
506,13.86059821262899
507,0.4628109424677813
1215,21.0
1216,30.0
2896,14.698071457515264
2,1, 1,21, 0,19,20.00,30.00,WinterDesignDay
502,17.00740950828107
503,13.381445764955824
504,13.466550812416186
505,13.500885277818387
506,13.593612526294338
507,0.4722391673206777
1215,21.0
1216,30.0
2896,14.508709375663845
2,1, 1,21, 0,19,30.00,40.00,WinterDesignDay
502,15.819193645325052
503,11.154540642875203
504,11.125334726563443
505,11.31510808985533
506,11.232425987931704
507,0.4790678988622837
1215,21.0
1216,30.0
2896,12.562311272231568
2,1, 1,21, 0,19,40.00,50.00,WinterDesignDay
502,16.62739992084216
503,12.252929571955251
504,12.297364724104122
505,12.398954136439421
506,12.417427519277865
507,0.4856703095318297
1215,21.0
1216,30.0
2896,13.593611665312809
2,1, 1,21, 0,19,50.00,60.00,WinterDesignDay
502,16.65614593110724
503,12.41384916370068
504,12.46790861991849
505,12.54771168631011
506,12.58764946011218
507,0.4915931947785324
1215,21.0
1216,30.0
2896,13.715625872212799
2,1, 1,21, 0,20, 0.00,10.00,WinterDesignDay
502,16.70620147323015
503,12.586801119173403
504,12.647000662040993
505,12.70999604825354
506,12.768437342978883
507,0.4984268830409476
1215,21.0
1216,30.0
2896,13.852068503391827
2,1, 1,21, 0,20,10.00,20.00,WinterDesignDay
502,15.610453234822971
503,10.621688251584807
504,10.578082714036938
505,10.782859334601284
506,10.668307008183277
507,0.501785279854916
1215,21.0
1216,30.0
2896,12.11847432953286
2,1, 1,21, 0,20,20.00,30.00,WinterDesignDay
502,16.44483635616404
503,11.819028917361534
504,11.842159914819845
505,11.9642338779347
506,11.950372460372485
507,0.5042073067180213
1215,21.0
1216,30.0
2896,13.225945818503272
2,1, 1,21, 0,20,30.00,40.00,WinterDesignDay
502,16.84596728653352
503,12.475572522729461
504,12.515158287324013
505,12.605604511759472
506,12.633218118880125
507,0.5069796404755195
1215,21.0
1216,30.0
2896,13.809971177469457
2,1, 1,21, 0,20,40.00,50.00,WinterDesignDay
502,16.879028381798236
503,12.647981046793664
504,12.684181368037342
505,12.769263222497928
506,12.805270550865538
507,0.5077541838207493
1215,21.0
1216,30.0
2896,13.939146743363775
2,1, 1,21, 0,20,50.00,60.00,WinterDesignDay
502,15.655697758848879
503,10.566486676535323
504,10.501399948222142
505,10.726978067998491
506,10.585063064750946
507,0.5063812478195584
1215,21.0
1216,30.0
2896,12.086010283578561
2,1, 1,21, 0,21, 0.00,10.00,WinterDesignDay
502,16.451320837247295
503,11.732279712972813