Program Version,EnergyPlus, Version 9.6.0-f420c06a69, YMD=2022.02.10 16:57
1,5,Environment Title[],Latitude[deg],Longitude[deg],Time Zone[],Elevation[m]
2,8,Day of Simulation[],Month[],Day of Month[],DST Indicator[1=yes 0=no],Hour[],StartMinute[],EndMinute[],DayType
3,5,Cumulative Day of Simulation[],Month[],Day of Month[],DST Indicator[1=yes 0=no],DayType  ! When Daily Report Variables Requested
4,2,Cumulative Days of Simulation[],Month[]  ! When Monthly Report Variables Requested
5,1,Cumulative Days of Simulation[] ! When Run Period Report Variables Requested
6,1,Calendar Year of Simulation[] ! When Annual Report Variables Requested
502,1,CORE_ZN,Zone Mean Air Temperature [C] !TimeStep
503,1,PERIMETER_ZN_1,Zone Mean Air Temperature [C] !TimeStep
504,1,PERIMETER_ZN_2,Zone Mean Air Temperature [C] !TimeStep
505,1,PERIMETER_ZN_3,Zone Mean Air Temperature [C] !TimeStep
506,1,PERIMETER_ZN_4,Zone Mean Air Temperature [C] !TimeStep
507,1,ATTIC,Zone Mean Air Temperature [C] !TimeStep
1215,1,HTGSETP_SCH,Schedule Value [] !TimeStep
1216,1,CLGSETP_SCH,Schedule Value [] !TimeStep
2896,1,Averaged Building Temperature,PythonPlugin:OutputVariable [C] !TimeStep
44,9,Electricity:Facility [J] !Monthly [Value,Min,Day,Hour,Minute,Max,Day,Hour,Minute]
1358,9,NaturalGas:Facility [J] !Monthly [Value,Min,Day,Hour,Minute,Max,Day,Hour,Minute]
1729,9,CO2:Facility [kg] !Monthly [Value,Min,Day,Hour,Minute,Max,Day,Hour,Minute]
1754,9,CO:Facility [kg] !Monthly [Value,Min,Day,Hour,Minute,Max,Day,Hour,Minute]
1779,9,CH4:Facility [kg] !Monthly [Value,Min,Day,Hour,Minute,Max,Day,Hour,Minute]
1804,9,NOx:Facility [kg] !Monthly [Value,Min,Day,Hour,Minute,Max,Day,Hour,Minute]
1829,9,N2O:Facility [kg] !Monthly [Value,Min,Day,Hour,Minute,Max,Day,Hour,Minute]
1854,9,SO2:Facility [kg] !Monthly [Value,Min,Day,Hour,Minute,Max,Day,Hour,Minute]
1879,9,PM:Facility [kg] !Monthly [Value,Min,Day,Hour,Minute,Max,Day,Hour,Minute]
1904,9,PM10:Facility [kg] !Monthly [Value,Min,Day,Hour,Minute,Max,Day,Hour,Minute]
1929,9,PM2.5:Facility [kg] !Monthly [Value,Min,Day,Hour,Minute,Max,Day,Hour,Minute]
1954,9,NH3:Facility [kg] !Monthly [Value,Min,Day,Hour,Minute,Max,Day,Hour,Minute]
1979,9,NMVOC:Facility [kg] !Monthly [Value,Min,Day,Hour,Minute,Max,Day,Hour,Minute]
2004,9,Hg:Facility [kg] !Monthly [Value,Min,Day,Hour,Minute,Max,Day,Hour,Minute]
2029,9,Pb:Facility [kg] !Monthly [Value,Min,Day,Hour,Minute,Max,Day,Hour,Minute]
2054,9,WaterEnvironmentalFactors:Facility [L] !Monthly [Value,Min,Day,Hour,Minute,Max,Day,Hour,Minute]
2079,9,Nuclear High:Facility [kg] !Monthly [Value,Min,Day,Hour,Minute,Max,Day,Hour,Minute]
2104,9,Nuclear Low:Facility [m3] !Monthly [Value,Min,Day,Hour,Minute,Max,Day,Hour,Minute]
2818,9,Carbon Equivalent:Facility [kg] !Monthly [Value,Min,Day,Hour,Minute,Max,Day,Hour,Minute]
End of Data Dictionary
1,CHICAGO ANN HTG 99.6% CONDNS DB,  41.98, -87.92,  -6.00, 201.00
2,1, 1,21, 0, 1, 0.00,10.00,WinterDesignDay
502,16.28262990917557
503,11.533184585870046
504,11.342278406182775
505,11.677242657968712
506,11.347822027369267
507,0.4340565138588546
1215,21.555
1216,30.0
2896,12.906167103463867
2,1, 1,21, 0, 1,10.00,20.00,WinterDesignDay
502,16.64612995701537
503,12.199656786007745
504,12.0140776092876
505,12.328468621302129
506,12.019684864157261
507,0.42302968437683547
1215,21.555
1216,30.0
2896,13.481961921071946
2,1, 1,21, 0, 1,20.00,30.00,WinterDesignDay
502,16.673866916661503
503,12.385383843586286
504,12.196218040071017
505,12.505511133909158
506,12.20183388534264
507,0.4131868833338738
1215,21.555
1216,30.0
2896,13.618561583032855
2,1, 1,21, 0, 1,30.00,40.00,WinterDesignDay
502,15.456034443005207
503,10.253674765770437
504,10.025658031659658
505,10.414138527741455
506,10.031063783848044
507,0.4069976567345575
1215,21.555
1216,30.0
2896,11.753113154197468
2,1, 1,21, 0, 1,40.00,50.00,WinterDesignDay
502,16.255857898017428
503,11.484073696057814
504,11.29131401831569
505,11.62816881790734
506,11.296867569248246
507,0.39985051827575335
1215,21.555
1216,30.0
2896,12.863118083021716
2,1, 1,21, 0, 1,50.00,60.00,WinterDesignDay
502,16.620056712678966
503,12.15055603248279
504,11.962663418989036
505,12.279381243280962
506,11.968268250665709
507,0.3887230839527163
1215,21.555
1216,30.0
2896,13.438996661428279
2,1, 1,21, 0, 2, 0.00,10.00,WinterDesignDay
502,16.648006244764062
503,12.335288825995688
504,12.143702163390504
505,12.455403210121844
506,12.149307463294264
507,0.3788125185029549
1215,21.555
1216,30.0
2896,13.574920209265576
2,1, 1,21, 0, 2,10.00,20.00,WinterDesignDay
502,15.42883125552476
503,10.20341766487593
504,9.974450969833317
505,10.36388674362193
506,9.979870266545712
507,0.37260868038986444
1215,21.555
1216,30.0
2896,11.709358627455924
2,1, 1,21, 0, 2,20.00,30.00,WinterDesignDay
502,16.229499797260278
503,11.437414185554928
504,11.243024695383678
505,11.58155005351958
506,11.248584346873635
507,0.36544901541403063
1215,21.555
1216,30.0
2896,12.821983126805907
2,1, 1,21, 0, 2,30.00,40.00,WinterDesignDay
502,16.594327567675286
503,12.103822367291391
504,11.913840570465911
505,12.23265916313149
506,11.919441808901006
507,0.3543130364950461
1215,21.555
1216,30.0
2896,13.397864696324646
2,1, 1,21, 0, 2,40.00,50.00,WinterDesignDay
502,16.622513734806432
503,12.28751696067427
504,12.093721241399324
505,12.40761135052591
506,12.09931627819344
507,0.3444097119222724
1215,21.555
1216,30.0
2896,13.533083839493488
2,1, 1,21, 0, 2,50.00,60.00,WinterDesignDay
502,15.401854961739483
503,10.15542248996191
504,9.925609530871233
505,10.315889899827486
506,9.931036668082564
507,0.338229248936635
1215,21.555
1216,30.0
2896,11.667295211407684
2,1, 1,21, 0, 3, 0.00,10.00,WinterDesignDay
502,16.203368106676137
503,11.392936534294357
504,11.197064326091944
505,11.537114595125052
506,11.202626912062046
507,0.33110001662451044
1215,21.555
1216,30.0
2896,12.782496148341764
2,1, 1,21, 0, 3,10.00,20.00,WinterDesignDay
502,16.568812666323645
503,12.059214474951355
504,11.867310434698473
505,12.188058698606193
506,11.87290699142374
507,0.3200192335115417
1215,21.555
1216,30.0
2896,13.35834173705711
2,1, 1,21, 0, 3,20.00,30.00,WinterDesignDay
502,16.59727768624137
503,12.241851395766133
504,12.046014948498973
505,12.361917314495978
506,12.051599813752661
507,0.31017526302427834
1215,21.555
1216,30.0
2896,13.492854627195026
2,1, 1,21, 0, 3,30.00,40.00,WinterDesignDay
502,15.374984647841556
503,10.109501149609422
504,9.878900343618431
505,10.269957590089549
506,9.884331123835505
507,0.3040447236299933
1215,21.555
1216,30.0
2896,11.626742244330883
2,1, 1,21, 0, 3,40.00,50.00,WinterDesignDay
502,16.17735872158856
503,11.350452789655945
504,11.153201999886708
505,11.494673275398872
506,11.158765154090418
507,0.29697600574236144
1215,21.555
1216,30.0
2896,12.744482267985155
2,1, 1,21, 0, 3,50.00,60.00,WinterDesignDay
502,16.54344290320601
503,12.016558964099003
504,11.822865675358297
505,12.145403993136343
506,11.828456740755415
507,0.28599515556185545
1215,21.555
1216,30.0
2896,13.320275476298203
2,1, 1,21, 0, 4, 0.00,10.00,WinterDesignDay
502,16.57224287467724
503,12.198130921805653
504,12.000395338324985
505,12.318158369609215
506,12.005970129600291
507,0.27624722739316915
1215,21.555
1216,30.0
2896,13.454095015675046
2,1, 1,21, 0, 4,10.00,20.00,WinterDesignDay
502,15.348128437000844
503,10.065512323170935
504,9.834156335245984
505,10.225945569670362
506,9.839587731756941
507,0.2701853809295342
1215,21.555
1216,30.0
2896,11.58756560579754
2,1, 1,21, 0, 4,20.00,30.00,WinterDesignDay
502,16.15139571340464
503,11.30982177267189
504,11.111269947885187
505,11.454083570279174
506,11.116831977072117
507,0.2631984755458766
1215,21.555
1216,30.0
2896,12.707812199173917
2,1, 1,21, 0, 4,30.00,40.00,WinterDesignDay
502,16.518172904203013
503,11.975721819658538
504,11.780350211369615
505,12.104555806997157
506,11.78593525184613
507,0.25234929904994285
1215,21.555
1216,30.0
2896,13.283550917638937
2,1, 1,21, 0, 4,40.00,50.00,WinterDesignDay
502,16.54737941741524
503,12.156227227455839
504,11.956716097749315
505,12.276202584361055
506,11.962280969573337
507,0.2427234972530817
1215,21.555
1216,30.0
2896,13.41669997538701
2,1, 1,21, 0, 4,50.00,60.00,WinterDesignDay
502,15.321173662567471
503,10.023343417136692
504,9.791247238777405
505,10.183734943219221
506,9.796677069794091
507,0.23674370352892782
1215,21.555
1216,30.0
2896,11.549646739604183
2,1, 1,21, 0, 5, 0.00,10.00,WinterDesignDay
502,16.125388215701555
503,11.270930952271268
504,11.071136293162194
505,11.415229506653752
506,11.076696008523488
507,0.2298537832735993
1215,21.555
1216,30.0
2896,12.672373962081148
2,1, 1,21, 0, 5,10.00,20.00,WinterDesignDay
502,16.492952620988362
503,11.936593232736794
504,11.73963796472463
505,12.065385048113997
506,11.74521666493047
507,0.219158928605696
1215,21.555
1216,30.0
2896,13.24806721380835
2,1, 1,21, 0, 5,20.00,30.00,WinterDesignDay
502,16.522663512388363
503,12.11603256838658
504,11.914856004932068
505,12.235927895468222
506,11.920411167098438
507,0.2096738733519281
1215,21.555
1216,30.0
2896,13.380579619010962
2,1, 1,21, 0, 5,30.00,40.00,WinterDesignDay
502,15.29389022997023
503,9.982901159963278
504,9.750063996815507
505,10.143210519257318
506,9.755490667804349
507,0.20378563155173346
1215,21.555
1216,30.0
2896,11.512843370417535
2,1, 1,21, 0, 5,40.00,50.00,WinterDesignDay
502,16.099150022373024
503,11.233686746325173
504,11.032690302151519
505,11.378003623624306
506,11.038246871425628
507,0.19700348373956378
1215,21.555
1216,30.0
2896,12.638039306199053
2,1, 1,21, 0, 5,50.00,60.00,WinterDesignDay
502,16.467677417134055
503,11.899079050043659
504,11.700621029701601
505,12.027868639490135
506,11.706193229784452
507,0.18647906113146784
1215,21.555
1216,30.0
2896,13.213739316566613
2,1, 1,21, 0, 6, 0.00,10.00,WinterDesignDay
502,16.498046073091885
503,12.077452507882716
504,11.874709370151484
505,12.197298797530108
506,11.880255071461763
507,0.17714795746440415
1215,21.555
1216,30.0
2896,13.345662909127102
2,1, 1,21, 0, 6,10.00,20.00,WinterDesignDay
502,15.266327896736257
503,9.94410752107023
504,9.710509308518102
505,10.104370664113079
506,9.715931609629854
507,0.1713578988583499
1215,21.555
1216,30.0
2896,11.477126814058158
2,1, 1,21, 0, 6,20.00,30.00,WinterDesignDay
502,16.073623589345033
503,11.198009736363774
504,10.995833432119111
505,11.342377858851801
506,11.0013862556459
507,0.16469103742345073
1215,21.555
1216,30.0
2896,12.605034392030927
2,1, 1,21, 0, 6,30.00,40.00,WinterDesignDay
502,16.443949807570924
503,11.863096223631665
504,11.66320316194385
505,11.99206007661916
506,11.668768797996016
507,0.15434825376371158
1215,21.555
1216,30.0
2896,13.181004522664676
2,1, 1,21, 0, 6,40.00,50.00,WinterDesignDay
502,16.475325650813208
503,12.040403538348894
504,11.836182705797903
505,12.16032929381826
506,11.84171920888573
507,0.14518024773677904
1215,21.555
1216,30.0
2896,13.312436386193314
2,1, 1,21, 0, 6,50.00,60.00,WinterDesignDay
502,15.248157428119185
503,9.90688153079327
504,9.67250453654204
505,10.067281862975292
506,9.67792162713071
507,0.1394929690480816
1215,21.555
1216,30.0
2896,11.445304617963728
2,1, 1,21, 0, 7, 0.00,10.00,WinterDesignDay
502,16.06439848435841
503,11.920587844483407
504,11.740370137036349
505,12.073622735469012
506,11.746104035175481
507,0.13315712769529847
1215,21.555
1216,30.0
2896,13.121083722487663
2,1, 1,21, 0, 7,10.00,20.00,WinterDesignDay
502,16.143614094292865
503,12.52695020063674
504,12.34947471490316
505,12.669833758681172
506,12.356262588909019
507,0.1259044172015786
1215,21.555
1216,30.0
2896,13.571715088119177
2,1, 1,21, 0, 7,20.00,30.00,WinterDesignDay
502,16.205759518281567
503,12.887350433916184
504,12.716964498785899
505,13.022540484136886
506,12.723080773243069
507,0.1194037349203271
1215,21.555
1216,30.0
2896,13.8448627158951
2,1, 1,21, 0, 7,30.00,40.00,WinterDesignDay
502,16.358243436039608
503,13.434887807203108
504,13.261695892938393
505,13.564206189688045
506,13.267536311200127
507,0.10783246149901188
1215,21.555
1216,30.0
2896,14.274657361871055
2,1, 1,21, 0, 7,40.00,50.00,WinterDesignDay
502,16.439934381247443
503,13.6873780868664
504,13.510762230969096
505,13.814270400900792
506,13.516590304958523
507,0.09873552721365804
1215,21.555
1216,30.0
2896,14.475699073501755
2,1, 1,21, 0, 7,50.00,60.00,WinterDesignDay
502,16.46585462913817
503,13.76038072562751
504,13.586547736316204
505,13.886278985180526
506,13.592408844571866
507,0.09249864759319319
1215,21.555
1216,30.0
2896,14.535433378539508
2,1, 1,21, 0, 8, 0.00,10.00,WinterDesignDay
502,16.481265005811764
503,13.80744993311321
504,13.640286449073427
505,13.932849659829703
506,13.646159372955797
507,0.08785610017287653
1215,21.555
1216,30.0
2896,14.574880615782998
2,1, 1,21, 0, 8,10.00,20.00,WinterDesignDay
502,16.50377456028802
503,13.866537728644229
504,13.705935174012831
505,13.991816280104544
506,13.711810307609918
507,0.08422467993340652
1215,21.555
1216,30.0
2896,14.624960027116405
2,1, 1,21, 0, 8,20.00,30.00,WinterDesignDay
502,16.529102379811913
503,13.926241430787853
504,13.770917205235424
505,14.051567584189163
506,13.77679744455016
507,0.08155227609370272
1215,21.555
1216,30.0
2896,14.67600025628781
2,1, 1,21, 0, 8,30.00,40.00,WinterDesignDay
502,16.552083181536027
503,13.978077515343598
504,13.827243713753607
505,14.103439190796296
506,13.833132337394353
507,0.08001915816647537
1215,21.555
1216,30.0
2896,14.720579473369709
2,1, 1,21, 0, 8,40.00,50.00,WinterDesignDay
502,16.57187496763638
503,14.022521946267693
504,13.875838239299831
505,14.147881565168529
506,13.8817358258414
507,0.0795579790098367
1215,21.555
1216,30.0
2896,14.758899610121135
2,1, 1,21, 0, 8,50.00,60.00,WinterDesignDay
502,16.58953375925891
503,14.061926339537273
504,13.919308662631023
505,14.187316156056973
506,13.925214702726947
507,0.08013081376598667
1215,21.555
1216,30.0
2896,14.79301579299711
2,1, 1,21, 0, 9, 0.00,10.00,WinterDesignDay
502,16.605907330054336
503,14.097937426799382
504,13.958855059316774
505,14.223369926677368
506,13.96476979952983
507,0.08155533350024516
1215,21.555
1216,30.0
2896,14.824218930282512
2,1, 1,21, 0, 9,10.00,20.00,WinterDesignDay
502,16.62219300008845
503,14.131196370393528
504,13.99521644953891
505,14.25666385462876
506,14.001139926669671
507,0.08380006885974126
1215,21.555
1216,30.0
2896,14.853334277734536
2,1, 1,21, 0, 9,20.00,30.00,WinterDesignDay
502,16.63720127002177
503,14.162020722353262
504,14.028864729473115
505,14.287513744016584
506,14.034796339187828
507,0.08672592458593595
1215,21.555
1216,30.0
2896,14.880278320845802
2,1, 1,21, 0, 9,30.00,40.00,WinterDesignDay
502,16.65063017723793
503,14.190731765993243
504,14.060173661725607
505,14.316245349526966
506,14.066112783232734
507,0.09032245928811761
1215,21.555
1216,30.0
2896,14.905204677378341
2,1, 1,21, 0, 9,40.00,50.00,WinterDesignDay
502,16.66286796599621
503,14.217652968516818
504,14.089477059711925
505,14.343185070888524
506,14.095423314625032
507,0.0944695445742969
1215,21.555
1216,30.0
2896,14.928459187243407
2,1, 1,21, 0, 9,50.00,60.00,WinterDesignDay
502,16.67429827869604
503,14.243060327561818
504,14.117065892850064
505,14.368609702494664
506,14.12301905206663
507,0.09915946046917123
1215,21.555
1216,30.0
2896,14.950353503390073
2,1, 1,21, 0,10, 0.00,10.00,WinterDesignDay
502,16.68510217307157
503,14.267174943280981
504,14.143184237844384
505,14.392740364235907
506,14.149144114418494
507,0.10428920979556786
1215,21.555
1216,30.0
2896,14.971103062501555
2,1, 1,21, 0,10,10.00,20.00,WinterDesignDay
502,16.696925448078165
503,14.29017670191742
504,14.1680351230254
505,14.415756962255328
506,14.174001541369385
507,0.10985554343033402
1215,21.555
1216,30.0
2896,14.99132304265535
2,1, 1,21, 0,10,20.00,30.00,WinterDesignDay
502,16.70804494161244
503,14.312216255115798
504,14.191788981152095
505,14.437810288417824
506,14.197761780310696
507,0.11577246316084822
1215,21.555
1216,30.0
2896,15.010620719471499
2,1, 1,21, 0,10,30.00,40.00,WinterDesignDay
502,16.717937442039904
503,14.333421641530181
504,14.214590353053374
505,14.459028566230973
506,14.220569390211606
507,0.1220396945663477
1215,21.555
1216,30.0
2896,15.028937846431823
2,1, 1,21, 0,10,40.00,50.00,WinterDesignDay
502,16.727023522736538
503,14.3539002694722
504,14.236561023926297
505,14.479519375316046
506,14.242546172803998
507,0.128585661146356
1215,21.555
1216,30.0
2896,15.04647734674824
2,1, 1,21, 0,10,50.00,60.00,WinterDesignDay
502,16.73565520538941
503,14.37361600086394
504,14.257665983935352
505,14.499244203476081
506,14.263657117314855
507,0.13532332591780188
1215,21.555
1216,30.0
2896,15.063316498363895
2,1, 1,21, 0,11, 0.00,10.00,WinterDesignDay
502,16.744014850991864
503,14.39271641176872
504,14.278071928254112
505,14.518352388278004
506,14.284068910005828
507,0.14225793175993984
1215,21.555
1216,30.0
2896,15.079618486032164
2,1, 1,21, 0,11,10.00,20.00,WinterDesignDay
502,16.751644906197388
503,14.411350291534447
504,14.297944990870588
505,14.536994710695295
506,14.303947723497817
507,0.14944099034472105
1215,21.555
1216,30.0
2896,15.095359587586982
2,1, 1,21, 0,11,20.00,30.00,WinterDesignDay
502,16.75915301715202
503,14.429574768789182
504,14.317350684872899
505,14.555228475369544
506,14.323359097137512
507,0.15682060276127538
1215,21.555
1216,30.0
2896,15.110760363328268
2,1, 1,21, 0,11,30.00,40.00,WinterDesignDay
502,16.76674949944897
503,14.447413900295022
504,14.336319092915
505,14.573077294752963
506,14.342333118719319
507,0.1643836500393644
1215,21.555
1216,30.0
2896,15.125900891974785
2,1, 1,21, 0,11,40.00,50.00,WinterDesignDay
502,16.774338026337503
503,14.464893977442776
504,14.354882551523696
505,14.590567294245256
506,14.360902125967172
507,0.17208509997611326
1215,21.555
1216,30.0
2896,15.140773119745104
2,1, 1,21, 0,11,50.00,60.00,WinterDesignDay
502,16.78182056430616
503,14.482044841098707
504,14.37307632924999
505,14.60772842834427
506,14.37910139100203
507,0.1799268814669197
1215,21.555
1216,30.0
2896,15.155370903188969
2,1, 1,21, 0,12, 0.00,10.00,WinterDesignDay
502,16.789180804792053
503,14.498893977947343
504,14.390932347204958
505,14.62458833426748
506,14.396962839800073
507,0.18787782937665823
1215,21.555
1216,30.0
2896,15.169710108296421
2,1, 1,21, 0,12,10.00,20.00,WinterDesignDay
502,16.79748387723202
503,14.515464432164087
504,14.40847733342651
505,14.641170146883145
506,14.414513204832714
507,0.1959398721648057
1215,21.555
1216,30.0
2896,15.184119873243292
2,1, 1,21, 0,12,20.00,30.00,WinterDesignDay
502,16.805567794881675
503,14.531775744383967
504,14.425733968493098
505,14.65749345963891
506,14.431775170290441
507,0.20408589572518884
1215,21.555
1216,30.0
2896,15.198274648379723
2,1, 1,21, 0,12,30.00,40.00,WinterDesignDay
502,16.8130565078545
503,14.547845536318137
504,14.44272243249582
505,14.67357594256816
506,14.448768919379896
507,0.21231733070090553
1215,21.555
1216,30.0
2896,15.21207748049193
2,1, 1,21, 0,12,40.00,50.00,WinterDesignDay
502,16.820196394443574
503,14.563689113628994
504,14.459460247195082
505,14.689432946972833
506,14.465511976626033
507,0.22061195510703788
1215,21.555
1216,30.0
2896,15.225611923068461
2,1, 1,21, 0,12,50.00,60.00,WinterDesignDay
502,16.82723564202484
503,14.57931878188061
504,14.475961859727127
505,14.70507681485537
506,14.482018791447555
507,0.2289715460119744
1215,21.555
1216,30.0
2896,15.238959915808525
2,1, 1,21, 0,13, 0.00,10.00,WinterDesignDay
502,16.83425036686354
503,14.5947444674515
504,14.492239235269915
505,14.72051750225574
506,14.498301330866681
507,0.2373778934208298
1215,21.555
1216,30.0
2896,15.2521513079528
2,1, 1,21, 0,13,10.00,20.00,WinterDesignDay
502,16.84045068158186
503,14.609974826065983
504,14.508302805063135
505,14.735763692796187
506,14.514370027749642
507,0.24583259551905673
1215,21.555
1216,30.0
2896,15.264961430556609
2,1, 1,21, 0,13,20.00,30.00,WinterDesignDay
502,16.846709696566034
503,14.625017626491182
504,14.524161832629284
505,14.75082318086384
506,14.530234147133717
507,0.2543204422259272
1215,21.555
1216,30.0
2896,15.277651807855456
2,1, 1,21, 0,13,30.00,40.00,WinterDesignDay
502,16.853319408010577
503,14.639879360195348
504,14.539824176848683
505,14.76570247663686
506,14.545901549250832
507,0.2628427064030706
1215,21.555
1216,30.0
2896,15.29031288620951
2,1, 1,21, 0,13,40.00,50.00,WinterDesignDay
502,16.86010833149271
503,14.654565902910115
504,14.555296871917557
505,14.7804074701909
506,14.561379269522623
507,0.27138668097139973
1215,21.555
1216,30.0
2896,15.302898921982907
2,1, 1,21, 0,13,50.00,60.00,WinterDesignDay
502,16.86690152796459
503,14.669083289700241
504,14.570586777855548
505,14.794944209268149
506,14.576674169225877
507,0.2799533142535067
1215,21.555
1216,30.0
2896,15.315363184586163
2,1, 1,21, 0,14, 0.00,10.00,WinterDesignDay
502,16.873650128244915
503,14.68343753210807
504,14.585700478104235
505,14.809318714033274
506,14.591792833096907
507,0.2885320366549951
1215,21.555
1216,30.0
2896,15.327695770182494
2,1, 1,21, 0,14,10.00,20.00,WinterDesignDay
502,16.88010811279163
503,14.69763406083448
504,14.60064389048741
505,14.823536417127011
506,14.60674118016655
507,0.2971235955899763
1215,21.555
1216,30.0
2896,15.339828618365566
2,1, 1,21, 0,14,20.00,30.00,WinterDesignDay
502,16.886585299201215
503,14.711677457295746
504,14.61542209961512
505,14.83760189619902
506,14.621524296079158
507,0.30571935697050545
1215,21.555
1216,30.0
2896,15.351855809847578
2,1, 1,21, 0,14,30.00,40.00,WinterDesignDay
502,16.89318067622274
503,14.725571467462274
504,14.63003939649045
505,14.851518890368064
506,14.63614647270878
507,0.31431991070779647
1215,21.555
1216,30.0
2896,15.363809118032325
2,1, 1,21, 0,14,40.00,50.00,WinterDesignDay
502,16.899832349849003
503,14.73931946370471
504,14.64449965562797
505,14.86529076538715
506,14.650611585360792
507,0.3229181898040343
1215,21.555
1216,30.0
2896,15.375672937367314
2,1, 1,21, 0,14,50.00,60.00,WinterDesignDay
502,16.906478975657745
503,14.752924815434692
504,14.658806634148847
505,14.878920885007815
506,14.66492339195998
507,0.33151452325900493
1215,21.555
1216,30.0
2896,15.38743179119656
2,1, 1,21, 0,15, 0.00,10.00,WinterDesignDay
502,16.91310359214708
503,14.766390839232969
504,14.672963944743822
505,14.892412559205075
506,14.67908550602169
507,0.3401031154820301
1215,21.555
1216,30.0
2896,15.399083135669585
2,1, 1,21, 0,15,10.00,20.00,WinterDesignDay
502,16.91867393800978
503,14.779720603679905
504,14.686974919877699
505,14.905768847472705
506,14.693101260808216
507,0.3486840710991736
1215,21.555
1216,30.0
2896,15.410326981551924
2,1, 1,21, 0,15,20.00,30.00,WinterDesignDay
502,16.92437299357144
503,14.792916603990717
504,14.700842373968996
505,14.918992233053308
506,14.706973471428809
507,0.35725272094473587
1215,21.555
1216,30.0
2896,15.421511529693747
2,1, 1,21, 0,15,30.00,40.00,WinterDesignDay
502,16.93058522741283
503,14.805980248909377
504,14.71456821655101
505,14.932084109026134
506,14.720704047939202
507,0.3658089641224239
1215,21.555
1216,30.0
2896,15.432750470117009
2,1, 1,21, 0,15,40.00,50.00,WinterDesignDay
502,16.93707039099748
503,14.818912923597297
504,14.728154287870089
505,14.945045847478
506,14.734294831051246
507,0.37434900304815416
1215,21.555
1216,30.0
2896,15.443974559111837
2,1, 1,21, 0,15,50.00,60.00,WinterDesignDay
502,16.94358757355665
503,14.83171703776772
504,14.741603168287023
505,14.957879850302334
506,14.747748401777347
507,0.3828724069547444
1215,21.555
1216,30.0
2896,15.455115009952689
2,1, 1,21, 0,16, 0.00,10.00,WinterDesignDay
502,16.95006779482464
503,14.844395671561287
504,14.75491790080155
505,14.970589189747098
506,14.761067803963785
507,0.3913760986407872
1215,21.555
1216,30.0
2896,15.466153793409248
2,1, 1,21, 0,16,10.00,20.00,WinterDesignDay
502,16.95600886908201
503,14.856951710451051
504,14.768101334176459
505,14.983176738318704
506,14.77425588722605
507,0.39985949434904106
1215,21.555
1216,30.0
2896,15.476945907043957
2,1, 1,21, 0,16,20.00,30.00,WinterDesignDay
502,16.96201650164261
503,14.869387355091888
504,14.781155761219443
505,14.995644679147688
506,14.787314945080592
507,0.40832033751943125
1215,21.555
1216,30.0
2896,15.487670266953323
2,1, 1,21, 0,16,30.00,40.00,WinterDesignDay
502,16.968283416117544
503,14.881703979310286
504,14.794082816772475
505,15.007994366843095
506,14.800246612915803
507,0.41675797500327233
1215,21.555
1216,30.0
2896,15.49838433517037
2,1, 1,21, 0,16,40.00,50.00,WinterDesignDay
502,16.974685179076896
503,14.89390285400464
504,14.806884039295406
505,15.020227056397111
506,14.813052429683758
507,0.4251707647989008
1215,21.555
1216,30.0
2896,15.509052645687254
2,1, 1,21, 0,16,50.00,60.00,WinterDesignDay
502,16.981098608883315
503,14.90598575808389
504,14.819561336611846
505,15.032344515205098
506,14.825734303801656
507,0.43355783678470733
1215,21.555
1216,30.0
2896,15.519640422751502
2,1, 1,21, 0,17, 0.00,10.00,WinterDesignDay
502,16.987488432215738
503,14.917954806512705
504,14.832116847864377
505,15.044348847485624
506,14.838294375120377
507,0.44191801140973647
1215,21.555
1216,30.0
2896,15.530138838805922
2,1, 1,21, 0,17,10.00,20.00,WinterDesignDay
502,16.994120644503727
503,14.929812006371447
504,14.84455260547283
505,15.05624204723806
506,14.850734676783857
507,0.4502502809685762
1215,21.555
1216,30.0
2896,15.540627195688222
2,1, 1,21, 0,17,20.00,30.00,WinterDesignDay
502,17.000709602457075
503,14.941559139760502
504,14.856870453953237
505,15.068025881635029
506,14.86305705399206
507,0.4585539692693902
1215,21.555
1216,30.0
2896,15.551023135887325
2,1, 1,21, 0,17,30.00,40.00,WinterDesignDay
502,17.007159935497103
503,14.95319798422089
504,14.869072224787889
505,15.079702113920739
506,14.875263338893227
507,0.46682799135169895
1215,21.555
1216,30.0
2896,15.561300004895056
2,1, 1,21, 0,17,40.00,50.00,WinterDesignDay
502,17.01352862273391
503,14.964730187306914
504,14.881159636699097
505,15.091272377831135
506,14.887355250873904
507,0.4750720984487343
1215,21.555
1216,30.0
2896,15.571475666079841
2,1, 1,21, 0,17,50.00,60.00,WinterDesignDay
502,17.019873575546132
503,14.976157071090332
504,14.893134144289675
505,15.10273798134828
506,14.899334245163708
507,0.48328511467868873
1215,21.555
1216,30.0
2896,15.58156804166697
2,1, 1,21, 0,18, 0.00,10.00,WinterDesignDay
502,17.026211105261876
503,14.987479730656343
504,14.904997016329686
505,15.114100005884302
506,14.911201591119209
507,0.4914671324462321
1215,21.555
1216,30.0
2896,15.591582724553266
2,1, 1,21, 0,18,10.00,20.00,WinterDesignDay
502,17.03073056729009
503,14.99869924895975
504,14.916749501249983
505,15.125359522026447
506,14.92295853775981
507,0.4996168468180632
1215,21.555
1216,30.0
2896,15.600990398374204
2,1, 1,21, 0,18,20.00,30.00,WinterDesignDay
502,17.035481813676054
503,15.009816337609122
504,14.928392544631592
505,15.136517228874514
506,14.934606031201833
507,0.5077345988284224
1215,21.555
1216,30.0
2896,15.610391783960244
2,1, 1,21, 0,18,30.00,40.00,WinterDesignDay
502,17.04113110784659
503,15.020830305212977
504,14.939925988910016
505,15.147572418151942
506,14.946143914250328
507,0.5158189225738954
1215,21.555
1216,30.0
2896,15.619981598792076
2,1, 1,21, 0,18,40.00,50.00,WinterDesignDay
502,17.04726101498234
503,15.031740720274875
504,14.951349873748669
505,15.158524645857739
506,14.957572226868555
507,0.5238702671614552
1215,21.555
1216,30.0
2896,15.629637441865736
2,1, 1,21, 0,18,50.00,60.00,WinterDesignDay
502,17.05345367789441
503,15.042549143185322
504,14.962665766121873
505,15.169375468878776
506,14.968892536655545
507,0.5318868493736227
1215,21.555
1216,30.0
2896,15.639238076921169
2,1, 1,21, 0,19, 0.00,10.00,WinterDesignDay
502,17.05804935099958
503,14.230434457170281
504,14.122951206087201
505,14.350647658456648
506,14.128938023048416
507,0.5373291055031315
1215,21.555
1216,30.0
2896,15.057473971341855
2,1, 1,21, 0,19,10.00,20.00,WinterDesignDay
502,17.06481287338672
503,13.64153642604234
504,13.534788518477427
505,13.75704208807826
506,13.540697310507028
507,0.5474032686009558
1215,21.555
1216,30.0
2896,14.642113131229355
2,1, 1,21, 0,19,20.00,30.00,WinterDesignDay
502,17.067268401349732
503,13.437131197578815
504,13.335601830724377
505,13.551953724856638
506,13.341501782562052
507,0.5566993835743912
1215,21.555
1216,30.0
2896,14.49949427892354
2,1, 1,21, 0,19,30.00,40.00,WinterDesignDay
502,15.884414975708996
503,11.25512174882397
504,11.104840411110096
505,11.413713507014611
506,11.110734874872335
507,0.5620939807324472
1215,21.555
1216,30.0
2896,12.606895360499669
2,1, 1,21, 0,19,40.00,50.00,WinterDesignDay
502,16.690152738662185
503,12.423022587981741
504,12.3117093911709
505,12.567127847045766
506,12.317672779905788
507,0.5681153123969724
1215,21.555
1216,30.0
2896,13.675816648820115
2,1, 1,21, 0,19,50.00,60.00,WinterDesignDay
502,16.715163180734773
503,12.619026831293027
504,12.508074667120017
505,12.751382176903828
506,12.513933087675323
507,0.5736000808957789
1215,21.555
1216,30.0
2896,13.819230465149754
2,1, 1,21, 0,20, 0.00,10.00,WinterDesignDay
502,16.761787560070847
503,12.823646768333061
504,12.70774481120091
505,12.945732695335261
506,12.713549474231717
507,0.5799803355354833
1215,21.555
1216,30.0
2896,13.974002486467322
2,1, 1,21, 0,20,10.00,20.00,WinterDesignDay
502,15.667673856704363
503,10.801896106866296
504,10.634395536716294
505,10.962858946099004
506,10.640247922739755
507,0.5830347789518316
1215,21.555
1216,30.0
2896,12.218894479362078
2,1, 1,21, 0,20,20.00,30.00,WinterDesignDay
502,16.4977254709306
503,12.036340693524771
504,11.90379893324755
505,12.181130085461955
506,11.909688597882143
507,0.5852318766925098
1215,21.555
1216,30.0
2896,13.340561051582934
2,1, 1,21, 0,20,30.00,40.00,WinterDesignDay
502,16.898008995228007
503,12.72010299587138
504,12.584209346037529
505,12.849595656282496
506,12.590078840133055
507,0.5876616768263669
1215,21.555
1216,30.0
2896,13.937045668404297
2,1, 1,21, 0,20,40.00,50.00,WinterDesignDay
502,16.93177561673761
503,12.904432081559639
504,12.758015537394776
505,13.02504637317616
506,12.763845201330767
507,0.5881559770664359
1215,21.555
1216,30.0
2896,14.072546152543074
2,1, 1,21, 0,20,50.00,60.00,WinterDesignDay
502,15.714817843086074
503,10.751479395381851
504,10.565565047821998
505,10.91267588482614